% Model:              Cooumpounding parabolic collactor.mph
% Version:            COMSOL 6.3.0.290
% Date:               Jan 16 2025, 19:50
% Dimension:          1
% Nodes:              161
% Expressions:        1
% Description:        Global
% acceptanceAngle,Average 1
0.34,406.0184691771605
0.341,405.5335027562776
0.342,405.3343452069424
0.343,405.40042271906185
0.34400000000000003,405.32629723099194
0.34500000000000003,406.23853920063027
0.34600000000000003,406.7119767125165
0.34700000000000003,406.687521008332
0.34800000000000003,408.12201593601173
0.34900000000000003,408.49521262726034
0.35000000000000003,409.0831486833948
0.35100000000000003,409.2597580355023
0.35200000000000004,408.89079579812204
0.35300000000000004,410.5686225636214
0.35400000000000004,408.9309347830317
0.35500000000000004,410.07677917857086
0.35600000000000004,414.7361535216944
0.35700000000000004,416.0043472073992
0.35800000000000004,412.0220605387389
0.35900000000000004,411.2102474610065
0.36000000000000004,411.3308048799161
0.36100000000000004,411.45735809263334
0.36200000000000004,412.23430678984545
0.36300000000000004,412.40393998119896
0.36400000000000005,412.7127974677333
0.36500000000000005,411.30499346849393
0.36600000000000005,412.6195481329993
0.36700000000000005,413.1661072452122
0.36800000000000005,412.93387536965145
0.36900000000000005,413.26053050182946
0.37,413.4975228732302
0.371,414.67872723534765
0.372,410.5107798849694
0.373,412.98849043632737
0.374,412.89306708017097
0.375,414.33242962645954
0.376,414.42744711281415
0.377,414.71606842954515
0.378,416.2994408293313
0.379,412.52648936896003
0.38,414.90044237751437
0.381,416.58383880249016
0.382,416.59094991484335
0.383,420.8169956619335
0.384,417.3999604656663
0.385,415.21112235033587
0.386,415.49556959536966
0.387,418.9608055054885
0.388,418.41408812488163
0.389,416.01698263078976
0.39,416.38543772523633
0.391,420.0204013314675
0.392,419.68210586219
0.393,422.1118764399202
0.394,418.7954283776675
0.395,420.35460974252845
0.396,418.37560291388064
0.397,420.83072491284315
0.398,421.82687747524494
0.399,423.93127398420523
0.4,423.5080261082205
0.401,422.4672338568883
0.402,420.5269825836461
0.403,422.0129567427929
0.404,423.2604042554751
0.405,421.4598380853561
0.406,418.42589187759546
0.40700000000000003,424.3331597973525
0.40800000000000003,421.95525319758826
0.40900000000000003,423.1308751942842
0.41000000000000003,422.26448204494204
0.41100000000000003,422.17488302036384
0.41200000000000003,423.7230374983822
0.41300000000000003,422.4474817176637
0.41400000000000003,422.7120170310598
0.41500000000000004,420.0422401352499
0.41600000000000004,420.70503934404053
0.41700000000000004,421.2815916181934
0.41800000000000004,421.5809558856793
0.41900000000000004,420.5031955107509
0.42000000000000004,421.95651796458384
0.42100000000000004,423.70294264496135
0.42200000000000004,420.9249253031608
0.42300000000000004,425.6658562705819
0.42400000000000004,423.5202971576
0.42500000000000004,425.1001430629561
0.42600000000000005,423.0547123322036
0.42700000000000005,425.45752403682866
0.42800000000000005,422.71980285678416
0.42900000000000005,424.32414045337475
0.43000000000000005,424.4480162877048
0.43100000000000005,423.17502674296014
0.43200000000000005,424.2524604242306
0.43300000000000005,424.3671251931163
0.43400000000000005,424.9013540845264
0.43500000000000005,423.53858593615473
0.43600000000000005,424.5556996663579
0.43700000000000006,426.05513797129043
0.43800000000000006,425.3515566639838
0.43900000000000006,425.69551756618336
0.44000000000000006,425.58585798997564
0.44100000000000006,422.12393206045004
0.44200000000000006,425.75107388272204
0.44300000000000006,423.1404117876046
0.44400000000000006,429.43026312100466
0.445,426.66724306060934
0.446,425.3643119203797
0.447,427.63663588753843
0.448,429.1690220610303
0.449,425.92462555129464
0.45,427.29458829821687
0.451,426.7275547762037
0.452,429.5616431946406
0.453,425.9265950449076
0.454,426.21143955164047
0.455,426.2234345661171
0.456,428.2066510872521
0.457,426.5561604442515
0.458,428.69782213260834
0.459,425.1214275882154
0.46,426.83695803369966
0.461,428.1687361069003
0.462,426.22285666090676
0.463,427.7482168856156
0.464,426.75559607155736
0.465,427.4870631021824
0.466,427.4533143637026
0.467,426.46582898572336
0.468,426.67372901414365
0.46900000000000003,425.75786039982313
0.47000000000000003,426.66470534209236
0.47100000000000003,427.48806966906005
0.47200000000000003,429.6904152086622
0.47300000000000003,429.4620902112524
0.47400000000000003,428.1021797438084
0.47500000000000003,427.0451270592454
0.47600000000000003,427.8968788788748
0.47700000000000004,426.9906988342226
0.47800000000000004,427.0389298422804
0.47900000000000004,424.59828111329
0.48000000000000004,428.2786832666561
0.48100000000000004,427.0572222355368
0.48200000000000004,426.4927327939754
0.48300000000000004,428.29096325541525
0.48400000000000004,428.1821554258525
0.485,426.69379446935596
0.486,425.8617870217866
0.487,427.1508719354415
0.488,427.16770115746334
0.489,427.90489530568584
0.49,427.10216986748924
0.491,426.4308162335268
0.492,425.9117388926606
0.493,424.1479587889782
0.494,426.0832785373249
0.495,424.9731979331371
0.496,423.88109129801006
0.497,425.508894761529
0.498,425.48928468936094
0.499,425.08007923664724
0.5,424.499417441449
